|************************************************************************
| IBIS file fx2lp_3.ibs
|************************************************************************
|
[IBIS ver]       3.2
[File name]      fx2lp_3.ibs
[File Rev]       2.0
|[Device name] FX2LP: part number CY7C68013A
[Date]           08/15/04
[Notes]    


CONTENTS

This is the IBIS model for Cypress part CY7C68013A.  This is the low-power
version of Cypress's USB 2.0 compliant device w/ microcontroller.

VERIFICATION 

This model was syntax checked with Hyperlynx 3.1 visual IBIS editor.  
There was no syntax warnings or errors.

VERSION HISTORY
    
2.0 -- Silicon based IBIS models 

 Silicon Model Information
 -------------------------
 **All silicon based measurements were performed on TYPICAL silicon.  MIN and 
   MAX values represent +/-20% of the TYPICAL silicon measurement****

 ONLY the ground and power clamps have been replaced with silicon measurements.

 Pullup and Pulldown curves still have the simulation based clamp data in them
   however, clamp regions will not be reached during normal pullup and pulldown
   operation.  Pullup and Pulldown numbers were compared with silicon 
   measurements for the normal operating region and found to be close enough to
   justify leaving the simulation results.

QUESTIONS?

  If there are any additional questions or concerns about using this 
  model, please create a technical support case at www.cypress.com/support 
  or call the technical support line at 1-800-541-4736 option 8.     

      
[Disclaimer]     This information is for modeling purposes only and is not
                 guaranteed. 
[Copyright]      Copyright Cypress Semiconductor, Inc. 2000 
|
| Revision History:
|
|************************************************************************
|                             Component CY7C68013_56QFN
|************************************************************************
|
[Component]      CY7C68013_56QFN
[Manufacturer]   Cypress Semiconductor 
[Package]
| variable       typ                 min                 max
R_pkg            200m                180m                220m
L_pkg            2.2nH              2.0nH               2.8nH
C_pkg            0.2pF              0.18pF              0.22pF
|
[Pin]  signal_name          model_name           R_pin     L_pin     C_pin
1       RDY<0>              gpio    
2       RDY<1>              gpio     
3       XTALVCC             POWER
4       XTALOUT             xtal
5       XTALIN              xtal
6       XTALGND             GND
7       DRIVERVCC           POWER
8       DPLUS               usb
9       DMINUS              usb
10      DRIVERGND           GND
11      COREVCC<1>          POWER
12      COREGND<1>          GND
13      XCLK                gpio          
14      TESTMODE            gpio     
15      SCL                 gpio     
16      SDA                 gpio     
17      VCC<1>              POWER
18      PORTB<0>            gpio     
19      PORTB<1>            gpio     
20      PORTB<2>            gpio     
21      PORTB<3>            gpio     
22      PORTB<4>            gpio     
23      PORTB<5>            gpio     
24      PORTB<6>            gpio     
25      PORTB<7>            gpio     
26      GND<1>              GND
27      VCC<2>              POWER
28      GND<2>              GND
29      CTL<0>              gpio       
30      CTL<1>              gpio       
31      CTL<2>              gpio       
32      COREVCC<2>          POWER
33      PORTA<0>            gpio       
34      PORTA<1>            gpio       
35      PORTA<2>            gpio       
36      PORTA<3>            gpio       
37      PORTA<4>            gpio       
38      PORTA<5>            gpio       
39      PORTA<6>            gpio       
40      PORTA<7>            gpio       
41      COREGND<2>          GND
42      RESET_N             gpio     
43      VCC<3>              POWER
44      WAKEUP_N            gpio     
45      PORTD<0>            gpio      
46      PORTD<1>            gpio     
47      PORTD<2>            gpio      
48      PORTD<3>            gpio     
49      PORTD<4>            gpio     
50      PORTD<5>            gpio     
51      PORTD<6>            gpio      
52      PORTD<7>            gpio     
53      GND<3>              GND
54      CLKOUT              gpio      
55      VCC<4>              POWER
56      GND<4>              GND
 

|************************************************************************
|Differential pin description
|************************************************************************
[Diff Pin]  inv_pin  vdiff     tdelay_typ  tdelay_min  tdelay_max
|
9            10           0.40V    0.000s

|
|************************************************************************
|                             Component C68013_56SSOP
|************************************************************************
|
[Component]      C68013_56SS0P 
[Manufacturer]   Cypress Semiconductor 
[Package]
| variable       typ                 min                 max
R_pkg            38.5m               34.6m               42.3m
L_pkg            4.27nH              3.84nH              4.7nH
C_pkg            0.85pF              0.76pF              0.935pF
|
[Pin]  signal_name          model_name           R_pin     L_pin     C_pin
1       PORTD<5>        gpio     
2       PORTD<6>        gpio      
3       PORTD<7>        gpio     
4       GND<3>          GND
5       CLKOUT          gpio      
6       VCC<4>          POWER
7       GND<4>          GND
8       RDY<0>          gpio     
9       RDY<1>          gpio     
10      XTALVCC         POWER
11      XTALOUT         xtal
12      XTALIN          xtal
13      XTALGND         GND
14      DRIVERVCC       POWER
15      DPLUS           usb
16      DMINUS          usb
17      DRIVERGND       GND
18      COREVCC<1>      POWER
19      COREGND<1>      GND
20      XCLK            gpio          
21      TESTMODE        gpio     
22      SCL             gpio     
23      SDA             gpio     
24      VCC<1>          POWER
25      PORTB<0>        gpio     
26      PORTB<1>        gpio     
27      PORTB<2>        gpio     
28      PORTB<3>        gpio     
29      PORTB<4>        gpio     
30      PORTB<5>        gpio     
31      PORTB<6>        gpio     
32      PORTB<7>        gpio     
33      GND<1>          GND
34      VCC<2>          POWER
35      GND<2>          GND
36      CTL<0>          gpio       
37      CTL<1>          gpio       
38      CTL<2>          gpio       
39      COREVCC<2>      POWER
40      PORTA<0>        gpio       
41      PORTA<1>        gpio       
42      PORTA<2>        gpio       
43      PORTA<3>        gpio       
44      PORTA<4>        gpio       
45      PORTA<5>        gpio       
46      PORTA<6>        gpio       
47      PORTA<7>        gpio       
48      COREGND<2>      GND
49      RESET_N         gpio     
50      VCC<3>          POWER
51      WAKEUP_N        gpio     
52      PORTD<0>        gpio      
53      PORTD<1>        gpio     
54      PORTD<2>        gpio      
55      PORTD<3>        gpio     
56      PORTD<4>        gpio      

|************************************************************************
|Differential pin description
|************************************************************************
[Diff Pin]  inv_pin  vdiff     tdelay_typ  tdelay_min  tdelay_max
|
15           16           0.10V    0.000s

|
|
|************************************************************************
|                             Component C68013_100TQFP
|************************************************************************
|
[Component]      C68013_100TQFP 
[Manufacturer]   Cypress Semiconductor 
[Package]
| variable       typ                 min                 max
R_pkg            29.7m               26.7m               32.7m
L_pkg            12.4nH              11.2nH              13.6nH
C_pkg            1.21pF              1.1pF               1.3pF
|
[Pin]  signal_name      model_name           R_pin     L_pin     C_pin
1       VCC<4>          POWER
2       GND<4>          GND
3       RDY<0>          gpio     
4       RDY<1>          gpio     
5       RDY<2>          gpio          
6       RDY<3>          gpio        
7       RDY<4>          gpio          
8       RDY<5>          gpio        
9       XTALVCC         POWER
10      XTALOUT         xtal
11      XTALIN          xtal
12      XTALGND         GND
13      N.C.            NC
14      N.C.            NC
15      N.C.            NC
16      DRIVERVCC       POWER
17      DPLUS           usb
18      DMINUS          usb
19      DRIVERGND       GND
20      COREVCC<1>      POWER
21      COREGND<1>      GND
22      CPUINT4         gpio          
23      TIMER<0>        gpio        
24      TIMER<1>        gpio          
25      TIMER<2>        gpio        
26      XCLK            gpio          
27      TESTMODE        gpio     
28      BRKPNT          gpio       
29      SCL             gpio          
30      SDA             gpio     
31      CPURD_N         gpio     
32      CPUWR_N         gpio     
33      VCC<1>          POWER
34      PORTB<0>        gpio     
35      PORTB<1>        gpio     
36      PORTB<2>        gpio     
37      PORTB<3>        gpio     
38      VCC<5>          POWER
39      GND<5>          GND
40      CPUTXD0         gpio     
41      CPURXD0         gpio     
42      CPUTXD1         gpio     
43      CPURXD1         gpio     
44      PORTB<4>        gpio     
45      PORTB<5>        gpio     
46      PORTB<6>        gpio     
47      PORTB<7>        gpio     
48      GND<1>          GND
49      VCC<2>          POWER
50      GND<2>          GND
51      CTL<3>          gpio       
52      CTL<4>          gpio       
53      VCC<6>          POWER
54      CTL<0>          gpio       
55      CTL<1>          gpio       
56      CTL<2>          gpio       
57      PORTC<0>        gpio       
58      PORTC<1>        gpio       
59      PORTC<2>        gpio       
60      PORTC<3>        gpio       
61      PORTC<4>        gpio       
62      PORTC<5>        gpio       
63      PORTC<6>        gpio       
64      PORTC<7>        gpio       
65      GND<6>          GND
66      COREVCC<2>      POWER
67      PORTA<0>        gpio       
68      PORTA<1>        gpio       
69      PORTA<2>        gpio       
70      PORTA<3>        gpio       
71      PORTA<4>        gpio       
72      PORTA<5>        gpio       
73      PORTA<6>        gpio       
74      PORTA<7>        gpio       
75      COREGND<2>      GND
76      CTL<5>          gpio       
77      RESET_N         gpio     
78      VCC<3>          POWER
79      WAKEUP_N        gpio     
80      PORTD<0>        gpio      
81      PORTD<1>        gpio     
82      PORTD<2>        gpio      
83      PORTD<3>        gpio     
84      CPUINT5_N       gpio      
85      VCC<7>          POWER
86      PORTE<0>        gpio      
87      PORTE<1>        gpio     
88      PORTE<2>        gpio      
89      PORTE<3>        gpio     
90      PORTE<4>        gpio      
91      PORTE<5>        gpio     
92      PORTE<6>        gpio      
93      PORTE<7>        gpio     
94      GND<7>          GND
95      PORTD<4>        gpio      
96      PORTD<5>        gpio     
97      PORTD<6>        gpio      
98      PORTD<7>        gpio     
99      GND<3>          GND
100     CLKOUT          gpio      

|************************************************************************
|Differential pin description
|************************************************************************
[Diff Pin]  inv_pin  vdiff     tdelay_typ  tdelay_min  tdelay_max
|
17           18           0.10V    0.000s


|
|************************************************************************
|                             Component C68013_128TQFP
|************************************************************************
|
[Component]      C68013_128TQFP 
[Manufacturer]   Cypress Semiconductor 
[Package]
| variable       typ                 min                 max
R_pkg            24.5m               22.1m               26.95
L_pkg            15.18nH             13.7nH              16.7nH
C_pkg            0.98pF              0.88pF              1.08pF
|
[Pin]  signal_name          model_name           R_pin     L_pin     C_pin
1       CLKOUT          gpio      
2       VCC<4>          POWER
3       GND<4>          GND
4       RDY<0>          gpio     
5       RDY<1>          gpio     
6       RDY<2>          gpio          
7       RDY<3>          gpio        
8       RDY<4>          gpio          
9       RDY<5>          gpio        
10      XTALVCC         POWER
11      XTALOUT         xtal
12      XTALIN          xtal
13      XTALGND         GND
14      N.C.            NC
15      N.C.            NC
16      N.C.            NC
17      DRIVERVCC       POWER
18      DPLUS           usb
19      DMINUS          usb
20      DRIVERGND       POWER
21      CPUADR<11>      gpio        
22      CPUADR<12>      gpio          
23      CPUADR<13>      gpio        
24      CPUADR<14>      gpio          
25      CPUADR<15>      gpio        
26      COREVCC<1>      POWER
27      COREGND<1>      GND
28      CPUINT4         gpio          
29      TIMER<0>        gpio        
30      TIMER<1>        gpio          
31      TIMER<2>        gpio        
32      XCLK            gpio          
33      TESTMODE        gpio     
34      BRKPNT          gpio       
35      EXTMEM          gpio        
36      SCL             gpio          
37      SDA             gpio     
38      CPUOE_N         gpio     
39      CPUPSEN_N       gpio     
40      CPURD_N         gpio     
41      CPUWR_N         gpio     
42      CPUCS_N         gpio     
43      VCC<1>          POWER
44      PORTB<0>        gpio     
45      PORTB<1>        gpio     
46      PORTB<2>        gpio     
47      PORTB<3>        gpio     
48      VCC<5>          POWER
49      GND<5>          GND
50      CPUTXD0         gpio     
51      CPURXD0         gpio     
52      CPUTXD1         gpio     
53      CPURXD1         gpio     
54      PORTB<4>        gpio     
55      PORTB<5>        gpio     
56      PORTB<6>        gpio     
57      PORTB<7>        gpio     
58      GND<1>          GND
59      CPUDATA<0>      gpio     
60      CPUDATA<1>      gpio     
61      CPUDATA<2>      gpio     
62      CPUDATA<3>      gpio     
63      CPUDATA<4>      gpio     
64      VCC<2>          POWER
65      GND<2>          GND
66      CTL<3>          gpio       
67      CTL<4>          gpio       
68      VCC<6>          POWER
69      CTL<0>          gpio       
70      CTL<1>          gpio       
71      CTL<2>          gpio       
72      PORTC<0>        gpio       
73      PORTC<1>        gpio       
74      PORTC<2>        gpio       
75      PORTC<3>        gpio       
76      PORTC<4>        gpio       
77      PORTC<5>        gpio       
78      PORTC<6>        gpio       
79      PORTC<7>        gpio       
80      GND<6>          GND
81      COREVCC<2>      POWER
82      PORTA<0>        gpio       
83      PORTA<1>        gpio       
84      PORTA<2>        gpio       
85      PORTA<3>        gpio       
86      CPUDATA<5>      gpio       
87      CPUDATA<6>      gpio       
88      CPUDATA<7>      gpio       
89      PORTA<4>        gpio       
90      PORTA<5>        gpio       
91      PORTA<6>        gpio       
92      PORTA<7>        gpio       
93      COREGND<2>      GND
94      CPUADR<0>       gpio       
95      CPUADR<1>       gpio       
96      CPUADR<2>       gpio       
97      CPUADR<3>       gpio       
98      CTL<5>          gpio       
99      RESET_N         gpio     
100     VCC<3>          POWER
101     WAKEUP_N        gpio     
102     PORTD<0>        gpio      
103     PORTD<1>        gpio     
104     PORTD<2>        gpio      
105     PORTD<3>        gpio     
106     CPUINT5_N       gpio      
107     VCC<7>          POWER
108     PORTE<0>        gpio      
109     PORTE<1>        gpio     
110     PORTE<2>        gpio      
111     PORTE<3>        gpio     
112     PORTE<4>        gpio      
113     PORTE<5>        gpio     
114     PORTE<6>        gpio      
115     PORTE<7>        gpio     
116     GND<7>          GND
117     CPUADR<4>       gpio      
118     CPUADR<5>       gpio     
119     CPUADR<6>       gpio      
120     CPUADR<7>       gpio     
121     PORTD<4>        gpio      
122     PORTD<5>        gpio     
123     PORTD<6>        gpio      
124     PORTD<7>        gpio     
125     GND<3>          GND
126     CPUADR<8>       gpio     
127     CPUADR<9>       gpio      
128     CPUADR<10>      gpio     

|************************************************************************
|Differential pin description
|************************************************************************
[Diff Pin]  inv_pin  vdiff     tdelay_typ  tdelay_min  tdelay_max
|
18           19           0.10V    0.000s


|************************************************************************
|                         Model gpio
|************************************************************************
|
[Model]          gpio
Model_type       I/O
Polarity         Non-Inverting
Enable           Active-Low
Vinl =  0.8v
Vinh =  2.0V
C_comp           1.25pF              1.00pF              1.50pF
Vref = 1.4V
Rref = 500ohms
Cref = 30pf
[Model Spec]
Vmeas 1.4V 1.26V 1.54V
|Vref 1.4V 1.26V 1.54V
| Some simulators allow Vcc-relative Vref definition.  If this is the case,
| then uncomment this line.
|
|
[Temperature Range]       23.00               120.00              -10.000
[Voltage Range]           3.30V               3.00V               3.60V
|
[Pulldown]
|  padV  I(typ)  I(min)  I(max)
|
 -3.600 -0.2871 -1.1099 -0.3399
 -3.490 -0.2825 -1.0715 -0.3330
 -3.380 -0.2767 -1.0324 -0.3237
 -3.270 -0.2698 -0.9930 -0.3139
 -3.160 -0.2622 -0.9532 -0.3037
 -3.050 -0.2541 -0.9133 -0.2934
 -2.940 -0.2456 -0.8732 -0.2830
 -2.830 -0.2367 -0.8330 -0.2725
 -2.720 -0.2277 -0.7927 -0.2618
 -2.610 -0.2184 -0.7523 -0.2509
 -2.500 -0.2090 -0.7117 -0.2399
 -2.390 -0.1994 -0.6710 -0.2288
 -2.280 -0.1897 -0.6301 -0.2175
 -2.170 -0.1798 -0.5891 -0.2061
 -2.060 -0.1698 -0.5480 -0.1945
 -1.950 -0.1597 -0.5067 -0.1827
 -1.840 -0.1495 -0.4652 -0.1708
 -1.730 -0.1392 -0.4236 -0.1588
 -1.620 -0.1288 -0.3819 -0.1467
 -1.510 -0.1183 -0.3399 -0.1344
 -1.400 -0.1078 -0.2979 -0.1221
 -1.290 -0.0972 -0.2561 -0.1097
 -1.180 -0.0867 -0.2149 -0.0974
 -1.070 -0.0761 -0.1741 -0.0851
 -0.960 -0.0657 -0.1335 -0.0731
 -0.850 -0.0555 -0.0928 -0.0612
 -0.740 -0.0454 -0.0526 -0.0500
 -0.630 -0.0359 -0.0261 -0.0396
 -0.520 -0.0272 -0.0188 -0.0310
 -0.410 -0.0199 -0.0136 -0.0243
 -0.300 -0.0141 -0.0093 -0.0179
 -0.190 -0.0088 -0.0056 -0.0114
 -0.080 -0.0036 -0.0022 -0.0047
  0.030  0.0017  0.0012  0.0021
  0.140  0.0068  0.0044  0.0087
  0.250  0.0117  0.0075  0.0150
  0.360  0.0163  0.0104  0.0210
  0.470  0.0206  0.0131  0.0267
  0.580  0.0247  0.0157  0.0321
  0.690  0.0286  0.0181  0.0371
  0.800  0.0322  0.0203  0.0419
  0.910  0.0355  0.0223  0.0464
  1.020  0.0385  0.0242  0.0505
  1.130  0.0413  0.0259  0.0544
  1.240  0.0439  0.0273  0.0579
  1.350  0.0461  0.0287  0.0612
  1.460  0.0482  0.0298  0.0641
  1.570  0.0499  0.0307  0.0667
  1.680  0.0512  0.0314  0.0690
  1.790  0.0522  0.0319  0.0709
  1.900  0.0529  0.0322  0.0723
  2.010  0.0532  0.0322  0.0731
  2.120  0.0535  0.0322  0.0737
  2.230  0.0537  0.0322  0.0740
  2.340  0.0537  0.0322  0.0743
  2.450  0.0537  0.0322  0.0746
  2.560  0.0537  0.0322  0.0748
  2.670  0.0537  0.0322  0.0749
  2.780  0.0537  0.0322  0.0750
  2.890  0.0537  0.0322  0.0750
  3.000  0.0537  0.0322  0.0750
  3.110  0.0537  0.0322  0.0750
  3.220  0.0537  0.0322  0.0750
  3.330  0.0537  0.0322  0.0750
  3.440  0.0538  0.0323  0.0750
  3.550  0.0539  0.0324  0.0750
  3.660  0.0540  0.0325  0.0751
  3.770  0.0541  0.0326  0.0753
  3.880  0.0543  0.0326  0.0754
  3.990  0.0544  0.0327  0.0755
  4.100  0.0545  0.0328  0.0757
  4.210  0.0546  0.0329  0.0758
  4.320  0.0547  0.0329  0.0760
  4.430  0.0549  0.0330  0.0762
  4.540  0.0550  0.0331  0.0763
  4.650  0.0551  0.0332  0.0765
  4.760  0.0552  0.0332  0.0766
  4.870  0.0553  0.0333  0.0768
  4.980  0.0554  0.0334  0.0769
  5.090  0.0555  0.0335  0.0771
  5.200  0.0556  0.0335  0.0772
  5.310  0.0558  0.0336  0.0774
  5.420  0.0559  0.0337  0.0775
  5.530  0.0560  0.0338  0.0776
  5.640  0.0561  0.0338  0.0778
  5.750  0.0562  0.0339  0.0779
  5.860  0.0563  0.0340  0.0781
  5.970  0.0564  0.0341  0.0782
  6.080  0.0565  0.0341  0.0784
  6.190  0.0567  0.0342  0.0785
  6.300  0.0568  0.0343  0.0787
  6.410  0.0569  0.0344  0.0788
  6.520  0.0570  0.0344  0.0789
  6.630  0.0571  0.0345  0.0791
  6.740  0.0572  0.0346  0.0792
  6.850  0.0573  0.0347  0.0794
  6.960  0.0574  0.0347  0.0795
  7.070  0.0575  0.0348  0.0797
  7.180  0.0576  0.0349  0.0798
|
[Pullup]
|  padV  I(typ)  I(min)  I(max)
|
 -3.600  0.1296  0.0789  0.1508
 -3.490  0.1258  0.0770  0.1466
 -3.380  0.1218  0.0752  0.1423
 -3.270  0.1177  0.0733  0.1380
 -3.160  0.1135  0.0713  0.1336
 -3.050  0.1094  0.0693  0.1292
 -2.940  0.1052  0.0672  0.1248
 -2.830  0.1010  0.0651  0.1203
 -2.720  0.0968  0.0630  0.1159
 -2.610  0.0925  0.0607  0.1114
 -2.500  0.0883  0.0584  0.1068
 -2.390  0.0840  0.0561  0.1023
 -2.280  0.0797  0.0537  0.0978
 -2.170  0.0755  0.0513  0.0933
 -2.060  0.0713  0.0488  0.0889
 -1.950  0.0673  0.0463  0.0844
 -1.840  0.0633  0.0438  0.0798
 -1.730  0.0594  0.0412  0.0752
 -1.620  0.0555  0.0386  0.0706
 -1.510  0.0517  0.0359  0.0659
 -1.400  0.0478  0.0332  0.0612
 -1.290  0.0440  0.0304  0.0564
 -1.180  0.0401  0.0277  0.0517
 -1.070  0.0362  0.0249  0.0469
 -0.960  0.0324  0.0222  0.0421
 -0.850  0.0285  0.0195  0.0372
 -0.740  0.0247  0.0169  0.0324
 -0.630  0.0209  0.0142  0.0276
 -0.520  0.0172  0.0116  0.0227
 -0.410  0.0135  0.0091  0.0179
 -0.300  0.0098  0.0065  0.0130
 -0.190  0.0061  0.0041  0.0082
 -0.080  0.0025  0.0017  0.0034
  0.030 -0.0010 -0.0007 -0.0013
  0.140 -0.0044 -0.0030 -0.0059
  0.250 -0.0077 -0.0052 -0.0103
  0.360 -0.0108 -0.0073 -0.0146
  0.470 -0.0138 -0.0093 -0.0186
  0.580 -0.0167 -0.0112 -0.0225
  0.690 -0.0194 -0.0130 -0.0262
  0.800 -0.0220 -0.0146 -0.0297
  0.910 -0.0243 -0.0160 -0.0330
  1.020 -0.0264 -0.0174 -0.0357
  1.130 -0.0279 -0.0185 -0.0380
  1.240 -0.0294 -0.0194 -0.0403
  1.350 -0.0308 -0.0202 -0.0422
  1.460 -0.0319 -0.0209 -0.0440
  1.570 -0.0328 -0.0215 -0.0454
  1.680 -0.0336 -0.0220 -0.0466
  1.790 -0.0342 -0.0224 -0.0476
  1.900 -0.0347 -0.0227 -0.0484
  2.010 -0.0351 -0.0230 -0.0491
  2.120 -0.0355 -0.0232 -0.0497
  2.230 -0.0358 -0.0235 -0.0502
  2.340 -0.0361 -0.0237 -0.0506
  2.450 -0.0364 -0.0238 -0.0510
  2.560 -0.0366 -0.0240 -0.0513
  2.670 -0.0369 -0.0241 -0.0517
  2.780 -0.0371 -0.0243 -0.0520
  2.890 -0.0373 -0.0244 -0.0522
  3.000 -0.0375 -0.0246 -0.0525
  3.110 -0.0376 -0.0247 -0.0527
  3.220 -0.0378 -0.0248 -0.0530
  3.330 -0.0380 -0.0249 -0.0532
  3.440 -0.0381 -0.0251 -0.0534
  3.550 -0.0383 -0.0256 -0.0536
  3.660 -0.0384 -0.0319 -0.0538
  3.770 -0.0386 -0.0665 -0.0540
  3.880 -0.0389 -0.1082 -0.0542
  3.990 -0.0398 -0.1500 -0.0544
  4.100 -0.0422 -0.1919 -0.0546
  4.210 -0.0462 -0.2338 -0.0555
  4.320 -0.0517 -0.2757 -0.0589
  4.430 -0.0583 -0.3176 -0.0651
  4.540 -0.0656 -0.3594 -0.0730
  4.650 -0.0734 -0.4011 -0.0818
  4.760 -0.0815 -0.4427 -0.0913
  4.870 -0.0899 -0.4842 -0.1012
  4.980 -0.0985 -0.5256 -0.1114
  5.090 -0.1073 -0.5668 -0.1219
  5.200 -0.1161 -0.6079 -0.1324
  5.310 -0.1250 -0.6489 -0.1430
  5.420 -0.1338 -0.6898 -0.1537
  5.530 -0.1427 -0.7305 -0.1643
  5.640 -0.1516 -0.7712 -0.1748
  5.750 -0.1604 -0.8117 -0.1853
  5.860 -0.1692 -0.8521 -0.1958
  5.970 -0.1780 -0.8924 -0.2061
  6.080 -0.1867 -0.9327 -0.2164
  6.190 -0.1953 -0.9729 -0.2266
  6.300 -0.2039 -1.0130 -0.2367
  6.410 -0.2124 -1.0531 -0.2467
  6.520 -0.2209 -1.0932 -0.2566
  6.630 -0.2293 -1.1333 -0.2663
  6.740 -0.2376 -1.1733 -0.2760
  6.850 -0.2459 -1.2134 -0.2856
  6.960 -0.2541 -1.2535 -0.2951
  7.070 -0.2623 -1.2937 -0.3046
  7.180 -0.2704 -1.3339 -0.3139
|
[GND_clamp]
|  padV  I(typ)  I(min)  I(max)
|
 -3.600 -0.8900 -0.7120 -1.0680
 -3.490 -0.8710 -0.6968 -1.0452
 -3.380 -0.8360 -0.6688 -1.0032
 -3.270 -0.8060 -0.6448 -0.9672
 -3.160 -0.7780 -0.6224 -0.9336
 -3.050 -0.7550 -0.6040 -0.9060
 -2.940 -0.7300 -0.5840 -0.8760
 -2.830 -0.7060 -0.5648 -0.8472
 -2.720 -0.6720 -0.5376 -0.8064
 -2.610 -0.6400 -0.5120 -0.7680
 -2.500 -0.6000 -0.4800 -0.7200
 -2.390 -0.5820 -0.4656 -0.6984
 -2.280 -0.5450 -0.4360 -0.6540
 -2.170 -0.5060 -0.4048 -0.6072
 -2.060 -0.4630 -0.3704 -0.5556
 -1.950 -0.4200 -0.3360 -0.5040
 -1.840 -0.3760 -0.3008 -0.4512
 -1.730 -0.3320 -0.2656 -0.3984
 -1.620 -0.2860 -0.2288 -0.3432
 -1.510 -0.2430 -0.1944 -0.2916
 -1.400 -0.1990 -0.1592 -0.2388
 -1.290 -0.1560 -0.1248 -0.1872
 -1.180 -0.1170 -0.0936 -0.1404
 -1.070 -0.0775 -0.0620 -0.0930
 -0.960 -0.0440 -0.0352 -0.0528
 -0.850 -0.0165 -0.0132 -0.0198
 -0.740 -0.0025 -0.0020 -0.0030
 -0.630 -0.0003 -0.0002 -0.0004
 -0.520 -0.0001 -0.0001 -0.0001
 -0.410  0.0000  0.0000  0.0000
 -0.300  0.0000  0.0000  0.0000
 -0.190  0.0000  0.0000  0.0000
 -0.080  0.0000  0.0000  0.0000
  0.030  0.0000  0.0000  0.0000
  0.140  0.0000  0.0000  0.0000
  0.250  0.0000  0.0000  0.0000
  0.360  0.0000  0.0000  0.0000
  0.470  0.0000  0.0000  0.0000
  0.580  0.0000  0.0000  0.0000
  0.690  0.0000  0.0000  0.0000
  0.800  0.0000  0.0000  0.0000
  0.910  0.0000  0.0000  0.0000
  1.020  0.0000  0.0000  0.0000
  1.130  0.0000  0.0000  0.0000
  1.240  0.0000  0.0000  0.0000
  1.350  0.0000  0.0000  0.0000
  1.460  0.0000  0.0000  0.0000
  1.570  0.0000  0.0000  0.0000
  1.680  0.0000  0.0000  0.0000
  1.790  0.0000  0.0000  0.0000
  1.900  0.0000  0.0000  0.0000
  2.010  0.0000  0.0000  0.0000
  2.120  0.0000  0.0000  0.0000
  2.230  0.0000  0.0000  0.0000
  2.340  0.0000  0.0000  0.0000
  2.450  0.0000  0.0000  0.0000
  2.560  0.0000  0.0000  0.0000
  2.670  0.0000  0.0000  0.0000
  2.780  0.0000  0.0000  0.0000
  2.890  0.0000  0.0000  0.0000
  3.000  0.0000  0.0000  0.0000
  3.110  0.0000  0.0000  0.0000
  3.220  0.0000  0.0000  0.0000
  3.330  0.0000  0.0000  0.0000
  3.440  0.0000  0.0000  0.0000
  3.550  0.0000  0.0000  0.0000
|
[POWER_clamp]
|  padV  I(typ)  I(min)  I(max)
|
 -3.600  0.0000  0.0000  0.0000
 -3.564  0.0000  0.0000  0.0000
 -3.528  0.0000  0.0000  0.0000
 -3.492  0.0000  0.0000  0.0000
 -3.456  0.0000  0.0000  0.0000
 -3.420  0.0000  0.0000  0.0000
 -3.384  0.0000  0.0000  0.0000
 -3.348  0.0000  0.0000  0.0000
 -3.312  0.0000  0.0000  0.0000
 -3.276  0.0000  0.0000  0.0000
 -3.240  0.0000  0.0000  0.0000
 -3.204  0.0000  0.0000  0.0000
 -3.168  0.0000  0.0000  0.0000
 -3.132  0.0000  0.0000  0.0000
 -3.096  0.0000  0.0000  0.0000
 -3.060  0.0000  0.0000  0.0000
 -3.024  0.0000  0.0000  0.0000
 -2.988  0.0000  0.0000  0.0000
 -2.952  0.0000  0.0000  0.0000
 -2.916  0.0000  0.0000  0.0000
 -2.880  0.0000  0.0000  0.0000
 -2.844  0.0000  0.0000  0.0000
 -2.808  0.0000  0.0000  0.0000
 -2.772  0.0000  0.0000  0.0000
 -2.736  0.0000  0.0000  0.0000
 -2.700  0.0000  0.0000  0.0000
 -2.664  0.0000  0.0000  0.0000
 -2.628  0.0000  0.0000  0.0000
 -2.592  0.0000  0.0000  0.0000
 -2.556  0.0000  0.0000  0.0000
 -2.520  0.0000  0.0000  0.0000
 -2.484  0.0000  0.0000  0.0000
 -2.448  0.0000  0.0000  0.0000
 -2.412  0.0000  0.0000  0.0000
 -2.376  0.0000  0.0000  0.0000
 -2.340  0.0000  0.0000  0.0000
 -2.304  0.0000  0.0000  0.0000
 -2.268  0.0000  0.0000  0.0000
 -2.232  0.0000  0.0000  0.0000
 -2.196  0.0000  0.0000  0.0000
 -2.160  0.0000  0.0000  0.0000
 -2.124  0.0000  0.0000  0.0000
 -2.088  0.0000  0.0000  0.0000
 -2.052  0.0000  0.0000  0.0000
 -2.016  0.0000  0.0000  0.0000
 -1.980  0.0000  0.0000  0.0000
 -1.944  0.0000  0.0000  0.0000
 -1.908  0.0000  0.0000  0.0000
 -1.872  0.0000  0.0000  0.0000
 -1.836  0.0000  0.0000  0.0000
 -1.800  0.0000  0.0000  0.0000
 -1.764  0.0000  0.0000  0.0000
 -1.728  0.0000  0.0000  0.0000
 -1.692  0.0000  0.0000  0.0000
 -1.656  0.0000  0.0000  0.0000
 -1.620  0.0000  0.0000  0.0000
 -1.584  0.0000  0.0000  0.0000
 -1.548  0.0000  0.0000  0.0000
 -1.512  0.0000  0.0000  0.0000
 -1.476  0.0000  0.0000  0.0000
 -1.440  0.0000  0.0000  0.0000
 -1.404  0.0000  0.0000  0.0000
 -1.368  0.0000  0.0000  0.0000
 -1.332  0.0000  0.0000  0.0000
 -1.296  0.0000  0.0000  0.0000
 -1.260  0.0000  0.0000  0.0000
 -1.224  0.0000  0.0000  0.0000
 -1.188  0.0000  0.0000  0.0000
 -1.152  0.0000  0.0000  0.0000
 -1.116  0.0000  0.0000  0.0000
 -1.080  0.0000  0.0000  0.0000
 -1.044  0.0000  0.0000  0.0000
 -1.008  0.0000  0.0000  0.0000
 -0.972  0.0000  0.0000  0.0000
 -0.936  0.0000  0.0000  0.0000
 -0.900  0.0000  0.0000  0.0000
 -0.864  0.0000  0.0000  0.0000
 -0.828  0.0000  0.0000  0.0000
 -0.792  0.0000  0.0000  0.0000
 -0.756  0.0000  0.0000  0.0000
 -0.720  0.0000  0.0000  0.0000
 -0.684  0.0000  0.0000  0.0000
 -0.648  0.0000  0.0000  0.0000
 -0.612  0.0000  0.0000  0.0000
 -0.576  0.0000  0.0000  0.0000
 -0.540  0.0000  0.0000  0.0000
 -0.504  0.0000  0.0000  0.0000
 -0.468  0.0000  0.0000  0.0000
 -0.432  0.0000  0.0000  0.0000
 -0.396  0.0000  0.0000  0.0000
 -0.360  0.0000  0.0000  0.0000
 -0.324  0.0000  0.0000  0.0000
 -0.288  0.0000  0.0000  0.0000
 -0.252  0.0000  0.0000  0.0000
 -0.216  0.0000  0.0000  0.0000
 -0.180  0.0000  0.0000  0.0000
 -0.144  0.0000  0.0000  0.0000
 -0.108  0.0000  0.0000  0.0000
|
[Ramp]
|    var             typ             min             max
|
 dV/dt_f    1.980/221.4p    1.800/424.0p    2.160/148.3p
 dV/dt_r    1.980/95.94p    1.800/169.7p    2.160/71.73p
R_load = 500
|
[Falling Waveform]
R_fixture = 500
V_fixture = 3.3
|  time  V(typ)  V(min)  V(max)
|
      0   3.300   3.000   3.600
 50.00p   3.300   3.000   3.600
100.00p   3.300   3.000   3.600
 150.0p   3.300   3.000   3.600
 200.0p   3.300   3.000   3.600
 250.0p   3.300   3.000   3.600
 300.0p   3.300   3.000   3.600
 350.0p   3.300   3.000   3.600